 Gaussian 09, Revision D.01,

 --------------------------
 #P B3LYP/Def2TZVP opt freq
 --------------------------

 ----------
 benceno_GS
 ----------
 Symbolic Z-matrix:
 Charge =  0 Multiplicity = 1

 SCF Done:  E(RB3LYP) =  -232.337367327     A.U. after   10 cycles
 Optimization completed.
    -- Stationary point found.
 Normal termination of Gaussian 09 at Tue Aug  5 11:21:06 2025.

 --------------------------------------------------------------------
 #P Geom=AllCheck Guess=TCheck SCRF=Check GenChk RB3LYP/def2TZVP Freq
 --------------------------------------------------------------------

 Structure from the checkpoint file:  "benceno_GS.chk"
 ----------
 benceno_GS
 ----------
 Charge =  0 Multiplicity = 1

 SCF Done:  E(RB3LYP) =  -232.337367327     A.U. after    1 cycles

  Exact polarizability:  78.102  -0.000  78.101  -0.000   0.000  38.626
 Approx polarizability: 128.610  -0.000 128.610   0.000   0.000  59.836

                      1                      2                      3
                     E2U                    E2U                    ?A
 Frequencies --    413.5604               413.5679               623.6704
 Red. masses --      2.9358                 2.9358                 6.0847
 Frc consts  --      0.2958                 0.2959                 1.3944
 IR Inten    --      0.0000                 0.0000                 0.0000

                      4                      5                      6
                     ?A                     A2U                    B2G
 Frequencies --    623.6728               693.6673               716.8136
 Red. masses --      6.0847                 1.0848                 4.0948
 Frc consts  --      1.3945                 0.3075                 1.2396
 IR Inten    --      0.0000               115.4045                 0.0000

                      7                      8                      9
                     E1G                    E1G                    E2U
 Frequencies --    866.1086               866.1090               966.0551
 Red. masses --      1.2477                 1.2477                 1.3606
 Frc consts  --      0.5515                 0.5515                 0.7482
 IR Inten    --      0.0000                 0.0000                 0.0000

                     10                     11                     12
                     E2U                    B2G                    ?B
 Frequencies --    966.0557               994.9145              1014.8497
 Red. masses --      1.3606                 1.2029                 6.0443
 Frc consts  --      0.7482                 0.7015                 3.6677
 IR Inten    --      0.0000                 0.0000                 0.0000

                     13                     14                     15
                     ?C                     ?D                     ?D
 Frequencies --   1028.7516              1061.2356              1061.2422
 Red. masses --      6.5386                 1.7128                 1.7127
 Frc consts  --      4.0772                 1.1365                 1.1365
 IR Inten    --      0.0000                 5.1061                 5.1044

                     16                     17                     18
                     ?C                     ?A                     ?A
 Frequencies --   1176.6828              1199.7378              1199.7403
 Red. masses --      1.1082                 1.1405                 1.1405
 Frc consts  --      0.9040                 0.9672                 0.9672
 IR Inten    --      0.0000                 0.0000                 0.0000

                     19                     20                     21
                     ?C                     ?B                     ?D
 Frequencies --   1335.1534              1388.2129              1517.6517
 Red. masses --      5.7740                 1.2477                 2.0009
 Frc consts  --      6.0645                 1.4167                 2.7152
 IR Inten    --      0.0000                 0.0000                 7.6300

                     22                     23                     24
                     ?D                     ?A                     ?A
 Frequencies --   1517.6555              1636.2492              1636.2497
 Red. masses --      2.0008                 5.2547                 5.2546
 Frc consts  --      2.7152                 8.2889                 8.2887
 IR Inten    --      7.6345                 0.0000                 0.0000

                     25                     26                     27
                     ?C                     ?A                     ?A
 Frequencies --   3160.6180              3170.1684              3170.1731
 Red. masses --      1.0839                 1.0873                 1.0873
 Frc consts  --      6.3792                 6.4383                 6.4383
 IR Inten    --      0.0000                 0.0000                 0.0000

                     28                     29                     30
                     ?D                     ?D                     ?B
 Frequencies --   3185.6376              3185.6430              3195.5523
 Red. masses --      1.0944                 1.0944                 1.0988
 Frc consts  --      6.5437                 6.5437                 6.6106
 IR Inten    --     35.3845                35.3868                 0.0000

 - Thermochemistry -
 -------------------
 Temperature   298.150 Kelvin.  Pressure   1.00000 Atm.
 Atom     1 has atomic number  6 and mass  12.00000

 Molecular mass:    78.04695 amu.
 Principal axes and moments of inertia in atomic units:
                           1         2         3
     Eigenvalues --   314.92920 314.92920 629.85840
           X            0.94099  -0.33843   0.00000
           Y            0.33843   0.94099   0.00000
           Z            0.00000   0.00000   1.00000
 This molecule is an oblate symmetric top.
 Rotational symmetry number 12.
 Rotational temperatures (Kelvin)      0.27503     0.27503     0.13751
 Rotational constants (GHZ):           5.73063     5.73063     2.86531
 Zero-point vibrational energy     263091.1 (Joules/Mol)
                                   62.88029 (Kcal/Mol)
 Warning -- explicit consideration of   2 degrees of freedom as
           vibrations may cause significant error
 Vibrational temperatures:    595.02   595.03   897.32   897.32   998.03
          (Kelvin)           1031.33  1246.14  1246.14  1389.94  1389.94
                             1431.46  1460.14  1480.14  1526.88  1526.89
                             1692.98  1726.15  1726.16  1920.99  1997.33
                             2183.56  2183.57  2354.19  2354.20  4547.42
                             4561.16  4561.17  4583.42  4583.42  4597.68

 Zero-point correction=                           0.100206 (Hartree/Particle)
 Thermal correction to Energy=                    0.104602
 Thermal correction to Enthalpy=                  0.105546
 Thermal correction to Gibbs Free Energy=         0.075098
 Sum of electronic and zero-point Energies=           -232.237161
 Sum of electronic and thermal Energies=              -232.232766
 Sum of electronic and thermal Enthalpies=            -232.231821
 Sum of electronic and thermal Free Energies=         -232.262269

                     E (Thermal)             CV                S
                      KCal/Mol        Cal/Mol-Kelvin    Cal/Mol-Kelvin
 Total                   65.639             17.200             64.082
 Electronic               0.000              0.000              0.000
 Translational            0.889              2.981             38.979
 Rotational               0.889              2.981             20.700
 Vibrational             63.861             11.239              4.403
 Vibration     1          0.777              1.441              0.914
 Vibration     2          0.777              1.441              0.914

 Optimization completed.
    -- Stationary point found.
 Normal termination of Gaussian 09 at Tue Aug  5 11:23:43 2025.
 Gaussian 09:  ES64L-G09RevD.01 24-Apr-2013

 ----------------------------------------------------------------------
 #P geom=check guess=read B3LYP/Def2TZVP td(singlet,root=1,NStates=20)
 density=current
 ----------------------------------------------------------------------

 ----------
 benceno_FC
 ----------
 Structure from the checkpoint file:  "benceno_FC.chk"
 Charge =  0 Multiplicity = 1

                         Standard orientation:
 ---------------------------------------------------------------------
 Center     Atomic      Atomic             Coordinates (Angstroms)
 Number     Number       Type             X           Y           Z
 ---------------------------------------------------------------------
      1          6           0       -0.000000    1.391233    0.000000
      2          6           0       -1.204843    0.695616   -0.000000
      3          6           0        1.204843    0.695616   -0.000000
      4          1           0       -2.142801    1.237147    0.000000
      5          1           0        2.142801    1.237147    0.000000
      6          6           0       -1.204843   -0.695616    0.000000
      7          6           0        1.204843   -0.695616   -0.000000
      8          1           0       -2.142801   -1.237147    0.000000
      9          1           0        2.142801   -1.237147    0.000000
     10          6           0        0.000000   -1.391233   -0.000000
     11          1           0        0.000000   -2.474294    0.000000
     12          1           0       -0.000000    2.474294    0.000000
 ---------------------------------------------------------------------

 SCF Done:  E(RB3LYP) =  -232.337367327     A.U. after    1 cycles

 Excitation energies and oscillator strengths:

 Excited state symmetry could not be determined.
 Excited State   1:      Singlet-?Sym    5.4398 eV  227.92 nm  f=0.0000  <S**2>=0.000
      20 -> 23         0.49971
      21 -> 22         0.49971
 This state for optimization and/or second-order correction.
 Total Energy, E(TD-HF/TD-KS) =  -232.137458096
 Copying the excited state density for this state as the 1-particle RhoCI density.

 Excited state symmetry could not be determined.
 Excited State   2:      Singlet-?Sym    6.1100 eV  202.92 nm  f=0.0000  <S**2>=0.000
      20 -> 22        -0.49809
      21 -> 23         0.49810

 Excited state symmetry could not be determined.
 Excited State   3:      Singlet-?Sym    7.0974 eV  174.69 nm  f=0.5835  <S**2>=0.000
      20 -> 22         0.49609
      21 -> 23         0.49608

 Excited state symmetry could not be determined.
 Excited State   4:      Singlet-?Sym    7.0974 eV  174.69 nm  f=0.5835  <S**2>=0.000
      20 -> 23         0.49608
      21 -> 22        -0.49608

 Excited state symmetry could not be determined.
 Excited State   5:      Singlet-?Sym    7.2776 eV  170.36 nm  f=0.0000  <S**2>=0.000
      21 -> 24         0.70521

 Excited state symmetry could not be determined.
 Excited State   6:      Singlet-?Sym    7.2776 eV  170.36 nm  f=0.0000  <S**2>=0.000
      20 -> 24         0.70521

 Excited state symmetry could not be determined.
 Excited State   7:      Singlet-?Sym    7.6505 eV  162.06 nm  f=0.0000  <S**2>=0.000
      18 -> 22         0.49858
      19 -> 23         0.49859

 Excited state symmetry could not be determined.
 Excited State   8:      Singlet-?Sym    7.7484 eV  160.01 nm  f=0.0000  <S**2>=0.000
      18 -> 23         0.49802
      19 -> 22         0.49788

 Excited state symmetry could not be determined.
 Excited State   9:      Singlet-?Sym    7.7484 eV  160.01 nm  f=0.0000  <S**2>=0.000
      18 -> 22         0.49795
      19 -> 23        -0.49794

 Excited state symmetry could not be determined.
 Excited State  10:      Singlet-?Sym    7.7514 eV  159.95 nm  f=0.0102  <S**2>=0.000
      18 -> 23        -0.49768
      19 -> 22         0.49783

 Excited state symmetry could not be determined.
 Excited State  11:      Singlet-?Sym    8.1165 eV  152.76 nm  f=0.0179  <S**2>=0.000
      20 -> 25        -0.49487
      21 -> 26         0.49491

 Excited state symmetry could not be determined.
 Excited State  12:      Singlet-?Sym    8.1894 eV  151.40 nm  f=0.0000  <S**2>=0.000
      20 -> 26        -0.49799
      21 -> 25         0.49799

 Excited state symmetry could not be determined.
 Excited State  13:      Singlet-?Sym    8.1894 eV  151.40 nm  f=0.0000  <S**2>=0.000
      20 -> 25         0.49801
      21 -> 26         0.49797

 Excited state symmetry could not be determined.
 Excited State  14:      Singlet-?Sym    8.2772 eV  149.79 nm  f=0.0000  <S**2>=0.000
      20 -> 26         0.49983
      21 -> 25         0.49983

 Excited state symmetry could not be determined.
 Excited State  15:      Singlet-?Sym    8.9518 eV  138.50 nm  f=0.0000  <S**2>=0.000
      20 -> 28         0.49770
      21 -> 27         0.49775

 Excited state symmetry could not be determined.
 Excited State  16:      Singlet-?Sym    8.9518 eV  138.50 nm  f=0.0000  <S**2>=0.000
      20 -> 27        -0.49734
      21 -> 28         0.49811

 Excited state symmetry could not be determined.
 Excited State  17:      Singlet-?Sym    8.9564 eV  138.43 nm  f=0.0000  <S**2>=0.000
      20 -> 27         0.49916
      21 -> 28         0.49839

 Excited state symmetry could not be determined.
 Excited State  18:      Singlet-?Sym    8.9681 eV  138.25 nm  f=0.0000  <S**2>=0.000
      20 -> 28         0.49841
      21 -> 27        -0.49836

 Excited state symmetry could not be determined.
 Excited State  19:      Singlet-?Sym    8.9716 eV  138.20 nm  f=0.0000  <S**2>=0.000
      17 -> 23         0.66821
      21 -> 30        -0.21977

 Excited state symmetry could not be determined.
 Excited State  20:      Singlet-?Sym    8.9716 eV  138.20 nm  f=0.0000  <S**2>=0.000
      17 -> 22         0.66821
      20 -> 30         0.21977

 Unable to determine electronic state:  an orbital has unidentified symmetry.
 Alpha  occ. eigenvalues --  -10.17703 -10.17679 -10.17679 -10.17621 -10.17621
 Alpha  occ. eigenvalues --  -10.17593  -0.85824  -0.74948  -0.74948  -0.60632
 Alpha  occ. eigenvalues --   -0.60632  -0.52855  -0.46435  -0.45156  -0.42597
 Alpha  occ. eigenvalues --   -0.42597  -0.37318  -0.34868  -0.34868  -0.25932
 Alpha  occ. eigenvalues --   -0.25932
 Alpha virt. eigenvalues --   -0.01444  -0.01444   0.04467   0.07651   0.07651
 Alpha virt. eigenvalues --    0.10351   0.10351   0.12626   0.13996   0.14889
 Alpha virt. eigenvalues --    0.20544   0.20866   0.21446   0.21446   0.23189

 Mulliken charges:
               1
     1  C   -0.117741
     2  C   -0.117671
     3  C   -0.117671
     4  H    0.117695
     5  H    0.117695
     6  C   -0.117671
     7  C   -0.117671
     8  H    0.117695
     9  H    0.117695
    10  C   -0.117741
    11  H    0.117693
    12  H    0.117693
 Sum of Mulliken charges =   0.00000

 Dipole moment (field-independent basis, Debye):
    X=             -0.0000    Y=              0.0000    Z=              0.0000  Tot=              0.0000
 Quadrupole moment (field-independent basis, Debye-Ang):
   XX=            -32.9108   YY=            -32.9110   ZZ=            -40.1915
   XY=             -0.0000   XZ=              0.0000   YZ=             -0.0000

 1\1\GINC-CN012\SP\RB3LYP TD-FC\def2TZVP\C6H6\STUDENT25\05-Aug-2025\0\\
 #P geom=check guess=read B3LYP/Def2TZVP td(singlet,root=1,NStates=20)
 density=current\\benceno_FC\\0,1\C,0,-0.000000084,1.391233,0.\C,0,-1.2
 048431626,0.6956164272,0.\C,0,1.2048430786,0.6956165728,0.\H,0,-2.1428
 011898,1.2371466712,0.\H,0,2.1428010404,1.2371469301,0.\C,0,-1.2048430
 786,-0.6956165728,0.\C,0,1.2048431626,-0.6956164272,0.\H,0,-2.14280104
 04,-1.2371469301,0.\H,0,2.1428011898,-1.2371466712,0.\C,0,0.000000084,
 -1.391233,0.\H,0,0.0000001495,-2.4742936013,0.\H,0,-0.0000001495,2.474

 Normal termination of Gaussian 09 at Tue Aug  5 11:29:37 2025.
